/*--------------------------------*- C++ -*----------------------------------*\
| =========                 |                                                 |
| \\      /  F ield         | OpenFOAM: The Open Source CFD Toolbox           |
|  \\    /   O peration     | Version:  4.0                                   |
|   \\  /    A nd           | Web:      www.OpenFOAM.org                      |
|    \\/     M anipulation  |                                                 |
\*---------------------------------------------------------------------------*/
FoamFile
{
    version     2.0;
    format      ascii;
    class       volScalarField;
    object      k;
}
// * * * * * * * * * * * * * * * * * * * * * * * * * * * * * * * * * * * * * //

dimensions      [0 2 -2 0 0 0 0];

internalField   uniform 0;

boundaryField
{
    i-00
    {
        type                fixedValue;
        value               uniform 2e-6;
    }
    o-00
    {
        type                inletOutlet; // preferred setting for turbulence at outlet
        inletValue          uniform 0;
        value               uniform 0;
    }
    w-00
    {
        type                fixedValue;
        value               uniform 0;
    }
    s-00
    {
        type            symmetry;
    }
    frontAndBack
    {
        type            empty;
    }
    wedge-top
    {
        type            wedge;
    }
    wedge-bottom
    {
        type            wedge;
    }
}

// ************************************************************************* //
